# reconstructionError 
# Time                	LNormalInf_           	LNormal1_             	LCentreInf_           	LCentre1_             	LCurvInf_             	LCurv1_               	k1                    	k2                    	length                	nCells                	avgVol                
0.001                 	5.62939646207239e-04	1.05755746300122e-04	4.80255840493382e-04	2.58669811518770e-04	2.58090472724470e-02	1.26957532594062e-02	1.00000000000000e-02	0.00000000000000e+00	6.25000000000000e-02	1.02400000000000e+03	3.90624999999994e-04
